% Model:              Ceres_convection_16320_M3B.mph
% Version:            COMSOL 5.5.0.359
% Date:               Mar 23 2020, 18:54
% Table:              Probe Table 1 - 
% Time (adim)                                     Temperature (K) - Center                          Temperature (K) - Bottom                          Rayleigh
0                                                 0.7818182633870454                                0.999071084125094                                 1782098.993761212
0.0044296875000000005                             0.9250056083337701                                0.8124963383266026                                553532.5228121653
0.008859375000000001                              0.8837156467418916                                0.761939796212353                                 267236.80059299374
0.0132890625                                      0.8335671588785454                                0.7558604575553668                                186111.62059413877
0.017718750000000002                              0.8141987775309758                                0.757146873603411                                 149716.32141401607
0.022148437500000003                              0.8031786712156972                                0.7588989898891283                                126659.93708400689
0.026578125                                       0.7951927604966618                                0.7582207467662513                                108253.09916420426
0.031007812500000002                              0.7895594418388754                                0.7548118654370233                                93068.23095643168
0.035437500000000004                              0.7858989952776261                                0.7502793375310455                                80872.38539099092
0.039867187500000005                              0.7833433428170811                                0.7450997088160994                                70581.79285790333
0.044296875000000006                              0.7812942605058644                                0.7394069116666945                                61629.5134650848
0.04872656250000001                               0.7802407107329652                                0.7338039537274275                                53966.263271520824
0.05315625                                        0.7792423866580183                                0.7286056265752971                                47407.93850440499
0.0575859375                                      0.7765856703859821                                0.7239245004487588                                41797.74496838227
0.062015625000000005                              0.77350571967519                                  0.719665529614606                                 36989.26204398554
0.0664453125                                      0.7704960728924699                                0.7157282639267171                                32851.58036989984
0.07087500000000001                               0.7674333733136067                                0.7120627732860654                                29277.613612687743
0.07530468750000001                               0.7641639768365787                                0.7086455694251335                                26180.82694057781
0.07973437500000001                               0.7606461247501088                                0.7054566482718416                                23490.21681012671
0.08416406250000001                               0.7569144124026081                                0.7024736551431844                                21147.281296015502
0.08859375000000001                               0.7530285087092503                                0.6996762117866366                                19103.638450539453
0.09302343750000001                               0.7490479603438878                                0.6970479918790263                                17319.853610072314
0.09745312500000002                               0.7450234053476559                                0.6945723147338206                                15762.773401304117
0.10188281250000002                               0.7409934846653852                                0.692226553212362                                 14403.268213942729
0.1063125                                         0.7369834809297477                                0.6899764793442215                                13213.167831300121
0.1107421875                                      0.7330067874884945                                0.6877761417650434                                12162.469233990794
0.115171875                                       0.7290705039337393                                0.685560093773909                                 11218.342529764048
0.11960156250000001                               0.7251792432234798                                0.6832549394518938                                10351.685287963322
0.12403125000000001                               0.7213392836674557                                0.6808159831535768                                9544.365380164705
0.1284609375                                      0.7175576002357322                                0.6782682158388618                                8790.914370342509
0.132890625                                       0.7138396618563889                                0.6757026952140897                                8093.801366534524
0.1373203125                                      0.7101873720905827                                0.6732346823719692                                7457.143497997963
0.14175000000000001                               0.7065997751346524                                0.6709258445779394                                6879.748764883195
0.14617968750000002                               0.7030758018867749                                0.6687904874334064                                6356.906778038784
0.15060937500000002                               0.6996148783418463                                0.6668278142931291                                5883.81849167185
0.15503906250000002                               0.6962178002827444                                0.6650185904759415                                5455.053543268081
0.15946875000000002                               0.6928869460422256                                0.6633370577962502                                5065.421496593783
0.16389843750000002                               0.6896261354309159                                0.6617575822126336                                4710.295247332872
0.16832812500000002                               0.6864393986982682                                0.6602608387004438                                4385.790842169606
0.17275781250000002                               0.6833333462491535                                0.6588238175434075                                4088.3175822051753
0.17718750000000003                               0.6803112223435481                                0.6574365386510398                                3815.1396716556255
0.18161718750000003                               0.6773746025944845                                0.6560947790754257                                3563.9620087605313
0.18604687500000003                               0.6745265000812186                                0.654789825807478                                 3332.5800813615406
0.19047656250000003                               0.6717659991053186                                0.6535233860955844                                3119.379733392144
0.19490625000000003                               0.6690965813083329                                0.6522812727330473                                2922.3030899643663
0.19933593750000003                               0.6665166985373512                                0.6510697942283789                                2740.2745626985384
0.20376562500000003                               0.6640252317602178                                0.6498790452631114                                2571.6208630039464
0.20819531250000003                               0.6616225882683726                                0.6487126310521675                                2415.4426544400867
0.212625                                          0.6593049823930786                                0.6475672395938745                                2270.5531614041047
0.2170546875                                      0.6570718741794068                                0.6464423866053355                                2136.048360206203
0.221484375                                       0.6549206924113635                                0.6453379135382                                   2011.0897557470564
0.2259140625                                      0.652847456385155                                 0.6442527171581443                                1894.8584292101095
0.23034375                                        0.6508526419797867                                0.6431872376155411                                1786.723510140385
0.23477343750000002                               0.6489286747544416                                0.6421406658115767                                1685.9751387050655
0.23920312500000002                               0.6470789412156228                                0.6411133634915585                                1592.116557239367
0.24363281250000002                               0.6452867186525988                                0.6401041691179283                                1504.471071136216
0.24806250000000002                               0.6435582875372301                                0.639113518924028                                 1422.6595989888012
0.2524921875                                      0.6418937149933543                                0.6381414175721902                                1346.267452593513
0.256921875                                       0.6402930010209718                                0.637187865062414                                 1274.9113210755338
0.2613515625                                      0.6387467337180772                                0.6362521249851951                                1208.1657731118682
0.26578125                                        0.6372491700490204                                0.6353337479918223                                1145.6714772621353
0.2702109375                                      0.6358078969114469                                0.6344333276991379                                1087.1927975231583
0.274640625                                       0.634422914305357                                 0.6335508641071436                                1032.4558264950022
0.27907031250000003                               0.6330941824846295                                0.6326863524397015                                981.2067342151972
0.28350000000000003                               0.6317952309085173                                0.6318366118381002                                933.0233517190769
0.28792968750000003                               0.6305429150614259                                0.6310036677582951                                887.8246526131522
0.29235937500000003                               0.6293372349433559                                0.6301875202002912                                845.4152193195438
0.29678906250000003                               0.6281781905543067                                0.6293881691640848                                805.6135850061395
0.30121875000000004                               0.6270552359634176                                0.6286036610020541                                768.173557733305
0.30564843750000004                               0.6259623277770223                                0.6278328761675389                                732.9038559328221
0.31007812500000004                               0.6249077155835376                                0.62707734290769                                  699.7272150677217
0.31450781250000004                               0.6238913993829629                                0.6263370612225108                                668.5129607820228
0.31893750000000004                               0.6229132336097174                                0.6256119935982073                                639.1382070022697
0.32336718750000004                               0.6219546174674082                                0.6248973464127567                                611.3497948870977
0.32779687500000004                               0.6210274462884786                                0.6241961852191835                                585.1420856659086
0.33222656250000004                               0.6201317200729286                                0.6235085100174824                                560.4204185138557
0.33665625000000005                               0.619267438820758                                 0.6228343208076574                                537.0963310290182
0.34108593750000005                               0.6184274599673334                                0.6221713308877809                                515.0322038780297
0.34551562500000005                               0.6176079478548357                                0.6215183122667097                                494.1271425923839
0.34994531250000005                               0.6168143244517257                                0.6208770007951304                                474.355149204686
0.35437500000000005                               0.6160465897580027                                0.6202473964730416                                455.6515277412038
0.35880468750000005                               0.6153045707076932                                0.6196294368993599                                437.9543382892396
0.36323437500000005                               0.6145761627178796                                0.619018757616612                                 421.1185595181785
0.36766406250000006                               0.6138691406816386                                0.618418161958912                                 405.1535964139863
0.37209375000000006                               0.6131835045989704                                0.6178276499262546                                390.011750610787
0.37652343750000006                               0.612519254469875                                 0.6172472215186429                                375.64819664794925
0.38095312500000006                               0.6118716055012219                                0.6166750857053128                                361.98811167827495
0.38538281250000006                               0.6112381556340745                                0.6161103433540916                                348.9785793781023
0.38981250000000006                               0.6106224294715221                                0.6155543137848293                                336.6088534965471
0.39424218750000006                               0.6100244270135646                                0.6150069969975259                                324.8454805472871
0.39867187500000006                               0.6094439816196027                                0.6144683323246196                                313.65590691029485
0.40310156250000007                               0.608873128507005                                 0.6139354200890692                                302.9624092477856
0.40753125000000007                               0.6083170063609793                                0.6134101310924004                                292.77098724025416
0.41196093750000007                               0.6077756151815259                                0.6128924653346164                                283.0564053910592
0.41639062500000007                               0.6072489549686448                                0.6123824228157185                                273.7948327955481
0.42082031250000007                               0.6067337652879314                                0.6118789022967037                                264.9461687472327
0.42525                                           0.6062285201733759                                0.6113813883697838                                256.4824154128928
0.4296796875                                      0.6057355501266302                                0.6108906681813944                                248.39722335620144
0.434109375                                       0.6052548551476944                                0.6104067417315321                                240.67237957413408
0.4385390625                                      0.6047862877605421                                0.609929563933885                                 233.2899358468831
0.44296875                                        0.604324524917081                                 0.6094575074282937                                226.20857583450442
0.4473984375                                      0.6038730165208963                                0.6089916269179148                                219.43050858850756
0.451828125                                       0.6034317625719887                                0.6085319224027566                                212.94167181295663
0.4562578125                                      0.6030007630703578                                0.6080783938828123                                206.72873155403647
0.4606875                                         0.6025777751488726                                0.6076304183972023                                200.76945831280665
0.46511718750000003                               0.6021618231839443                                0.6071877249645028                                195.04843616076087
0.46954687500000003                               0.6017544627143852                                0.6067507456387657                                189.56151334199973
0.47397656250000003                               0.6013556937401945                                0.6063194804199884                                184.29828344599863
0.47840625000000003                               0.600965392912469                                 0.6058938970662225                                179.24836870156764
0.48283593750000003                               0.600580000624767                                 0.6054730651383147                                174.3885235290898
0.48726562500000004                               0.6002018345552043                                0.6050575904499934                                169.7196058527452
0.49169531250000004                               0.5998308947037805                                0.6046474730012624                                165.23343278463764
0.49612500000000004                               0.5994671810704957                                0.604242712792121                                 160.9222184770402
0.5005546875000001                                0.5991091658687093                                0.6038429102540209                                156.77279134923148
0.504984375                                       0.598756233596659                                 0.6034479044121693                                152.77619715191128
0.5094140625000001                                0.5984094123027781                                0.6030579641364481                                148.92992464412484
0.51384375                                        0.5980687019870667                                0.6026730894268577                                145.22780378064888
0.5182734375000001                                0.5977340051753557                                0.6022932528805518                                141.66358584228277
0.522703125                                       0.5974029882713634                                0.6019177984551979                                138.2230516657513
0.5271328125000001                                0.5970771778518771                                0.6015471553162884                                134.90694648637825
0.5315625                                         0.5967565739168965                                0.6011813234638258                                131.71035518406444
0.5359921875000001                                0.5964411764664219                                0.6008203028978049                                128.62858662561274
0.540421875                                       0.5961293936406071                                0.6004634986232762                                125.65048028878392
0.5448515625000001                                0.595820633850793                                 0.6001106895201005                                122.76973162649617
0.54928125                                        0.5955159362825877                                0.5997622640082731                                119.98696995721785
0.5537109375000001                                0.5952153009359908                                0.5994182220877942                                117.29853724452094
0.5581406250000001                                0.5949187278110029                                0.599078563758664                                 114.70093405974943
0.5625703125000001                                0.594626216907624                                 0.5987432890208828                                112.19081237478183
0.5670000000000001                                0.5943377682258537                                0.5984123978744493                                109.76496870251103
0.5714296875                                      0.5940533817656921                                0.5980858903193643                                107.4203375678767
0.5758593750000001                                0.5937730575271392                                0.5977637663556281                                105.15398529323113
0.5802890625                                      0.593495300659836                                 0.5974452820285189                                102.95627794862365
0.5847187500000001                                0.5932199893676298                                0.5971303767227257                                100.82435989626696
0.5891484375                                      0.5929481801753371                                0.596819576247816                                 98.76069026043861
0.5935781250000001                                0.5926798730829583                                0.5965128806037918                                96.76291314105
0.5980078125                                      0.5924150680904936                                0.5962102897906515                                94.82876987172631
0.6024375000000001                                0.5921537651979425                                0.5959118038083977                                92.95609483275852
0.6068671875                                      0.5918959644053052                                0.5956174226570283                                91.14281145758773
0.6112968750000001                                0.5916416657125818                                0.5953271463365424                                89.38692842386214
0.6157265625                                      0.5913908691197722                                0.5950409748469434                                87.68653602030955
0.6201562500000001                                0.5911418763626703                                0.5947578521092668                                86.03192808037947
0.6245859375                                      0.5908945945109312                                0.5944777203340481                                84.42131051960565
0.6290156250000001                                0.5906501874562631                                0.5942013032965052                                82.85860371845278
0.6334453125                                      0.5904086551986665                                0.593928600996638                                 81.34230084198434
0.6378750000000001                                0.5901699977381409                                0.5936596134344436                                79.87095337507547
0.6423046875                                      0.5899342150746865                                0.5933943406099279                                78.44316877787519
0.6467343750000001                                0.5897013072083035                                0.5931327825230872                                77.05760824333404
0.6511640625                                      0.5894712741389914                                0.59287493917392                                  75.71298455265571
0.6555937500000001                                0.5892441158667507                                0.5926208105624305                                74.40806002411115
0.6600234375                                      0.5890186466656118                                0.5923693383604857                                73.13524908043289
0.6644531250000001                                0.5887948325394596                                0.5921204922246129                                71.893504717093
0.6688828125                                      0.5885734613711024                                0.5918749753852043                                70.68612381782008
0.6733125000000001                                0.5883545331605398                                0.5916327878422594                                69.51212696246873
0.6777421875                                      0.5881380479077718                                0.5913939295957792                                68.37057017256215
0.6821718750000001                                0.5879240056127988                                0.5911584006457624                                67.26054358802428
0.6866015625                                      0.58771240627562                                  0.590926200992211                                 66.18117019820862
0.6910312500000001                                0.5875032498962365                                0.5906973306351221                                65.13160462486695
0.6954609375                                      0.5872965364746474                                0.5904717895744996                                64.11103195504239
0.6998906250000001                                0.5870914629876891                                0.5902485505089284                                63.11351055409589
0.7043203125                                      0.5868880267849623                                0.5900276100477758                                62.13846318748044
0.7087500000000001                                0.5866867451314914                                0.5898096299242416                                61.1885840317269
0.7131796875                                      0.586487618027276                                 0.5895946101383264                                60.2632251711374
0.7176093750000001                                0.586290645472316                                 0.5893825506900308                                59.36176058218727
0.7220390625                                      0.5860958274666115                                0.5891734515793542                                58.4835853776609
0.7264687500000001                                0.5859031640101624                                0.588967312806297                                 57.62811507980365
0.7308984375                                      0.585712655102969                                 0.5887641343708566                                56.7947849214212
0.7353281250000001                                0.585524300745031                                 0.5885639162730366                                55.9830491738652
0.7397578125000001                                0.5853375291676137                                0.5883656906033257                                55.188206831233494
0.7441875000000001                                0.5851523526164788                                0.5881694780917687                                54.409976077929365
0.7486171875000001                                0.5849691280716516                                0.587975883046258                                 53.650542067197534
0.7530468750000001                                0.5847878555331323                                0.5877849054667929                                52.90946856479571
0.7574765625000001                                0.58460853500092                                  0.5875965453533749                                52.186333098345024
0.7619062500000001                                0.5844311664750155                                0.5874108027060029                                51.480726519312114
0.7663359375000001                                0.5842557499554188                                0.5872276775246775                                50.79225258079871
0.7707656250000001                                0.5840822854421295                                0.5870471698093995                                50.12052753049422