% Model:              Ceres_convection_16320_M3A.mph
% Version:            COMSOL 5.5.0.359
% Date:               Mar 23 2020, 18:41
% Table:              Probe Table 1 - 
% Time (adim)                                     Temperature (K) - Center                          Temperature (K) - Bottom                          Rayleigh
0                                                 0.8090942032235915                                0.9991805417277206                                6.763814723186187E7
0.0044296875000000005                             0.8787609530919034                                0.8060684256711639                                3945127.8508247538
0.008859375000000001                              0.8547786313031658                                0.8061719979330177                                2171547.0734564243
0.0132890625                                      0.840627866198856                                 0.8002312362991799                                1461127.6860337676
0.017718750000000002                              0.8279516771764461                                0.7931818318188665                                1065580.4884546872
0.022148437500000003                              0.8300963155656422                                0.7852562582122625                                807576.0240945274
0.026578125                                       0.8168581327191109                                0.7785544112699858                                622286.2047278563
0.031007812500000002                              0.8032422919828544                                0.7737767883100911                                492184.3848139101
0.035437500000000004                              0.8156573186367304                                0.7692049054380679                                396196.3544631172
0.039867187500000005                              0.8044033475399313                                0.7645628126693615                                317988.98975249275
0.044296875000000006                              0.8021334019239998                                0.7611814747581037                                259290.59216125056
0.04872656250000001                               0.7991172295633369                                0.7582496153093466                                216175.57333203178
0.05315625                                        0.7837424578703791                                0.755340879760533                                 182446.13745056972
0.0575859375                                      0.7947232486239297                                0.7525906347337704                                154251.9012549083
0.062015625000000005                              0.7911110989499612                                0.7501773621780552                                129437.81947855516
0.0664453125                                      0.7881641395767103                                0.7477317255872117                                109480.11076871943
0.07087500000000001                               0.784300072210971                                 0.7456681801937278                                93997.88759847816
0.07530468750000001                               0.7772695819688515                                0.7436928419682008                                81377.88178832179
0.07973437500000001                               0.7678659211173344                                0.7416276736014258                                70780.92739605547
0.08416406250000001                               0.7625518735995702                                0.7395423491485851                                61759.309265956836
0.08859375000000001                               0.763295060882347                                 0.7375399676600448                                54038.91084341795
0.09302343750000001                               0.7648306142135697                                0.7356231647201109                                47420.54356241817
0.09745312500000002                               0.7645274808593121                                0.7337643023810445                                41743.70341595173
0.10188281250000002                               0.7630033956362317                                0.7319509208333904                                36868.177281312506
0.1063125                                         0.7609935734926998                                0.7301831115592349                                32669.875048649465
0.1107421875                                      0.7588090712575588                                0.7284619739234759                                29042.899466061932
0.115171875                                       0.7565855740281167                                0.7267866904045366                                25898.96925656094
0.11960156250000001                               0.7543665900862877                                0.7251557867651505                                23164.044557993984
0.12403125000000001                               0.7521638890912126                                0.7235682928967337                                20776.4776832211
0.1284609375                                      0.749976089585159                                 0.7220243007460407                                18684.73711431975
0.132890625                                       0.747799984055538                                 0.7205240569678865                                16846.69806558441
0.1373203125                                      0.7456323796327489                                0.7190675871942481                                15227.256254219286
0.14175000000000001                               0.7434700468701614                                0.7176545965358436                                13796.498858745725
0.14617968750000002                               0.7413108411799438                                0.7162843092943568                                12529.167743541195
0.15060937500000002                               0.7391538402670284                                0.7149554028030526                                11403.70871276518
0.15503906250000002                               0.7369993880788388                                0.7136667816004901                                10402.058299754728
0.15946875000000002                               0.7348483557768133                                0.7124170924473284                                9508.585586095563
0.16389843750000002                               0.732702479954829                                 0.7112049686272953                                8709.893799621303
0.16832812500000002                               0.7305641944059102                                0.7100291028252562                                7994.458988901439
0.17275781250000002                               0.7284367139646049                                0.7088881685121138                                7352.289351399292
0.17718750000000003                               0.726323239251784                                 0.7077810368846443                                6774.792089568021
0.18161718750000003                               0.7242269666611492                                0.706706602767793                                 6254.501673222007
0.18604687500000003                               0.7221514909765359                                0.7056636170855752                                5784.85843075919
0.19047656250000003                               0.7201004292336015                                0.7046507423501807                                5360.115160089994
0.19490625000000003                               0.7180773233020585                                0.7036664933852171                                4975.216375886664
0.19933593750000003                               0.7160858621363597                                0.702708985603669                                 4625.652426234528
0.20376562500000003                               0.7141284572671791                                0.7017766715779146                                4307.569811425789
0.20819531250000003                               0.7122078872358104                                0.7008675452636158                                4017.480330934714
0.212625                                          0.7103265788905704                                0.699979417810916                                 3752.2919380088097
0.2170546875                                      0.7084865723455007                                0.6991099474335126                                3509.2637802968407
0.221484375                                       0.7066896081054275                                0.6982564979487238                                3285.9414837557
0.2259140625                                      0.7049375535143962                                0.6974148980008271                                3079.94935374556
0.23034375                                        0.7032307520207708                                0.6965844193387378                                2889.618366200045
0.23477343750000002                               0.7015692996472684                                0.6957635203887084                                2713.3922517705355
0.23920312500000002                               0.6999535709626397                                0.694949439107279                                 2549.7271244554117
0.24363281250000002                               0.6983833470021952                                0.6941437901245767                                2397.7248964457144
0.24806250000000002                               0.6968581531691629                                0.6933413116325888                                2255.8389950211513
0.2524921875                                      0.6953781784363637                                0.6925440987545081                                2123.444502156
0.256921875                                       0.6939423333260366                                0.6917511176339711                                1999.6588452997373
0.2613515625                                      0.6925497323947787                                0.690961487489556                                 1883.6915462363106
0.26578125                                        0.6912007457950535                                0.6901758649468069                                1774.9975144193081
0.2702109375                                      0.6898920409808498                                0.6893947653673826                                1673.0128065080196
0.274640625                                       0.68862509066506                                  0.6886179610035645                                1577.2296307196816
0.27907031250000003                               0.68739733825229                                  0.6878468607464286                                1487.2762361436319
0.28350000000000003                               0.6862078472700173                                0.6870819806681656                                1402.754331101603
0.28792968750000003                               0.6850568196913949                                0.686323274910982                                 1323.2797905432742
0.29235937500000003                               0.6839404066307426                                0.6855732052884271                                1248.6525505267523
0.29678906250000003                               0.682860428333782                                 0.6848306075399954                                1178.4645158612493
0.30121875000000004                               0.681813448827377                                 0.6840973907981339                                1112.5425916764777
0.30564843750000004                               0.6807993007953466                                0.6833736480288622                                1050.6026005695107
0.31007812500000004                               0.6798175418434647                                0.6826594210374751                                992.3885827763502
0.31450781250000004                               0.6788648421219319                                0.6819559966585645                                937.7467889108482
0.31893750000000004                               0.6779429129040859                                0.6812627135632835                                886.395690639638
0.32336718750000004                               0.6770478170580692                                0.6805803436498413                                838.1965074024806
0.32779687500000004                               0.6761803050344026                                0.6799087397879298                                792.9294622341631
0.33222656250000004                               0.6753392273394474                                0.679247854666413                                 750.4158460684395
0.33665625000000005                               0.6745220883236982                                0.6785977475117654                                710.5048419631713
0.34108593750000005                               0.6737303221130011                                0.6779583842894732                                673.014304705528
0.34551562500000005                               0.6729597714209068                                0.6773292939413781                                637.8104611736883
0.34994531250000005                               0.6722120062042167                                0.6767106543577914                                604.739196226374
0.35437500000000005                               0.6714852846975301                                0.6761020867250779                                573.6665984172658
0.35880468750000005                               0.6707780051870518                                0.6755032504252966                                544.4671223143108
0.36323437500000005                               0.6700910416845893                                0.6749143168182917                                517.0208156562277
0.36766406250000006                               0.6694209496745089                                0.6743343239541898                                491.2120176035063
0.37209375000000006                               0.6687692395583791                                0.6737636936428324                                466.9396757875551
0.37652343750000006                               0.6681340000032776                                0.6732018134545202                                444.1019044285386
0.38095312500000006                               0.6675144407871731                                0.6726484301861444                                422.60667866511756
0.38538281250000006                               0.666910591089358                                 0.6721035274828415                                402.36942027303616
0.38981250000000006                               0.6663183667873314                                0.6715656499659177                                383.2953798252485
0.39424218750000006                               0.6657396818348091                                0.6710354796735499                                365.32039406497825
0.39867187500000006                               0.6651745362317913                                0.6705130166057367                                348.376847307126
0.40310156250000007                               0.664622929978278                                 0.6699982607624795                                332.40154014481146
0.40753125000000007                               0.6640835142933503                                0.6694907345128024                                317.32957143042125
0.41196093750000007                               0.6635532981658194                                0.6689893786783176                                303.0935753234203
0.41639062500000007                               0.663034866896197                                 0.668495108766947                                 289.6538411755482
0.42082031250000007                               0.6625282204844829                                0.6680079247786858                                276.96249923457606
0.42525                                           0.6620333589306773                                0.6675278267135333                                264.9747530259818
0.4296796875                                      0.6615479736430394                                0.6670540136472518                                253.63930619209466
0.434109375                                       0.6610694603560763                                0.6665855820769293                                242.907346837538
0.4385390625                                      0.6606005765295235                                0.6661234886534518                                232.7542054226059
0.44296875                                        0.6601413221633807                                0.6656677333768248                                223.1460030406828
0.4473984375                                      0.6596916972576476                                0.6652183162470429                                214.0509940096471
0.451828125                                       0.659249297448455                                 0.6647744149972397                                205.42976044954494
0.4562578125                                      0.6588129278151444                                0.6643356209772584                                197.25053215101096
0.4606875                                         0.6583844517379172                                0.6639025714433049                                189.4953531417924
0.46511718750000003                               0.6579638692167733                                0.6634752663953838                                182.14014857501925
0.46954687500000003                               0.6575511802517129                                0.6630537058334941                                175.16232588811135
0.47397656250000003                               0.6571441128362641                                0.6626370974257101                                168.5313420314478
0.47840625000000003                               0.6567424742906427                                0.6622253739775248                                162.22731036764029
0.48283593750000003                               0.6563474012406825                                0.6618189318720281                                156.2367377567299
0.48726562500000004                               0.6559588936863836                                0.6614177711092214                                150.5424240460379
0.49169531250000004                               0.6555769516277457                                0.661021891689101                                 145.12820097119064
0.49612500000000004                               0.6551995321956328                                0.6606305304629494                                139.9700578803861
0.5005546875000001                                0.6548270558681193                                0.6602438445075475                                135.05621831802065
0.504984375                                       0.654460147614744                                 0.6598620672909589                                130.37632295449066
0.5094140625000001                                0.6540988074355067                                0.6594851988131833                                125.91800482388481
0.51384375                                        0.6537430353304079                                0.6591132390742181                                121.66961746492649
0.5182734375000001                                0.6533910451597538                                0.6587454351904721                                117.61196706464006
0.522703125                                       0.653043590647441                                 0.6583821048674177                                113.73879469881645
0.5271328125000001                                0.6527009591207342                                0.6580233692176309                                110.04196964508482
0.5315625                                         0.6523631505796326                                0.657669228241115                                 106.51253630876444
0.5359921875000001                                0.6520301650241367                                0.657319681937867                                 103.14204429696892
0.540421875                                       0.6517004607599977                                0.6569739658994779                                99.91488777896043
0.5448515625000001                                0.6513749461490663                                0.6566325305131996                                96.82855052090633
0.54928125                                        0.6510536955285091                                0.6562954126371568                                93.87649743602718
0.5537109375000001                                0.6507367088983256                                0.6559626122713469                                91.05219287595484
0.5581406250000001                                0.6504239304491226                                0.6556340961143354                                88.34915310472245
0.5625703125000001                                0.6501141975161824                                0.655309170404702                                 85.7553967341487
0.5670000000000001                                0.649808303680508                                 0.6549883086718109                                83.2700139310355
0.5714296875                                      0.6495062489421                                   0.6546715109156627                                80.88792823399513
0.5758593750000001                                0.6492080333009582                                0.6543587771362552                                78.60433085065763
0.5802890625                                      0.6489135223877409                                0.6540500106313801                                76.41389253466158
0.5847187500000001                                0.6486219600507188                                0.6537446672177996                                74.30812186211675
0.5891484375                                      0.6483339069650573                                0.6534431503992253                                72.2863727506798
0.5935781250000001                                0.6480493631307562                                0.65314546017565                                  70.34488614881151
0.5980078125                                      0.6477683285478157                                0.6528515965470814                                68.48009379254559
0.6024375000000001                                0.647490620241781                                 0.6525614030879021                                66.68751993836442
0.6068671875                                      0.6472157577596911                                0.6522744690569157                                64.96124509871849
0.6112968750000001                                0.6469441412862191                                0.6519911365736344                                63.30075889310849
0.6157265625                                      0.646675770821366                                 0.6517114056380574                                61.70325370799878
0.6201562500000001                                0.6464106463651309                                0.6514352762501874                                60.16605894584877
0.6245859375                                      0.6461484144376679                                0.6511623807086192                                58.684434850116865
0.6290156250000001                                0.6458886007173565                                0.6508922256083502                                57.253241726484525
0.6334453125                                      0.6456316775622011                                0.6506253023117651                                55.873329416120576
0.6378750000000001                                0.6453776449722015                                0.6503616108188659                                54.54263610066341
0.6423046875                                      0.6451265029473578                                0.6501011511296507                                53.25919505825047
0.6467343750000001                                0.6448782514876703                                0.6498439232441185                                52.021129966527525
0.6511640625                                      0.6446328905931384                                0.649589927162272                                 50.82665045350754
0.6555937500000001                                0.6443904202637629                                0.6493391628841122                                49.6740478826351
0.6600234375                                      0.6441508404995431                                0.6490916304096334                                48.561691359203316
0.6644531250000001                                0.6439141513004789                                0.6488473297388416                                47.48802394604551
0.6688828125                                      0.6436797130528131                                0.6486054858094081                                46.447938787701574
0.6733125000000001                                0.6434475621573685                                0.6483661427306188                                45.44044877305753
0.6777421875                                      0.6432180941898586                                0.6481297798477528                                44.46654545270978
0.6821718750000001                                0.6429913091502841                                0.6478963971608068                                43.52498832717454
0.6866015625                                      0.6427672070386445                                0.6476659946697809                                42.61459056857341
0.6910312500000001                                0.6425457878549397                                0.6474385723746755                                41.73421653761361
0.6954609375                                      0.6423270515991701                                0.6472141302754933                                40.882779424311586
0.6998906250000001                                0.6421109982713356                                0.6469926683722297                                40.05923900604631
0.7043203125                                      0.6418976278714359                                0.6467741866648872                                39.262599516884684
0.7087500000000001                                0.6416869403994712                                0.6465586851534657                                38.4919076223591
0.7131796875                                      0.6414777778783787                                0.6463447139645896                                37.740785911960266
0.7176093750000001                                0.6412707822128008                                0.6461330768105993                                37.01163792196795
0.7220390625                                      0.6410661995451061                                0.6459240818800361                                36.30486682957501
0.7264687500000001                                0.6408640298752939                                0.6457177291729005                                35.61972323910395
0.7308984375                                      0.6406642732033649                                0.6455140186891904                                34.95548774113561
0.7353281250000001                                0.6404669295293188                                0.64531295042891                                  34.31146963356255
0.7397578125000001                                0.6402719988531556                                0.6451145243920551                                33.687005701831524
0.7441875000000001                                0.6400794811748751                                0.6449187405786289                                33.08145905560376
0.7486171875000001                                0.6398893764944775                                0.6447255989886308                                32.494218019048155
0.7530468750000001                                0.6397016536422901                                0.6445350593975976                                31.924568084359738
0.7574765625000001                                0.6395150569579964                                0.6443455013759584                                31.366920141113813
0.7619062500000001                                0.6393306300089874                                0.6441582716473787                                30.82509706292203
0.7663359375000001                                0.6391483727952636                                0.6439733702118564                                30.29861619659823
0.7707656250000001                                0.638968285316825                                 0.6437907970693931                                29.787012776667087