% Model:              M1_case.mph
% Version:            COMSOL 5.5.0.359
% Date:               Mar 23 2020, 18:38
% Table:              
% Time (adim)                                       Temperature (K) - Center                          Temperature (K) - Bottom                          Rayleigh
0                                                 0.7818181890775282                                0.9990712512787194                                258195.28962161424
0.0044296875000000005                             0.7818265461203275                                0.963956008965672                                 152141.24298045645
0.008859375000000001                              0.7818131096516925                                0.946425207078261                                 110886.65651796525
0.0132890625                                      0.7817088221498587                                0.9334238689004667                                85580.82706093854
0.017718750000000002                              0.7814029870674122                                0.9227023521491498                                67931.79060566497
0.022148437500000003                              0.7808195418071358                                0.9133146791292458                                54773.80862930504
0.026578125                                       0.7799656920063671                                0.9048855050554542                                44552.0671371475
0.031007812500000002                              0.7789159405604398                                0.8973288802030547                                36478.02724603887
0.035437500000000004                              0.7777733962548565                                0.890601856124078                                 30099.58813855719
0.039867187500000005                              0.7766148569321256                                0.8846106929595815                                25061.701810594783
0.044296875000000006                              0.7754640585328922                                0.8792172396397208                                21058.161745902886
0.04872656250000001                               0.7743069661820954                                0.8743194780672814                                17841.895892034576
0.05315625                                        0.7731198123118017                                0.8698187251724848                                15228.273888463156
0.0575859375                                      0.7718795550527515                                0.8656284039914643                                13078.429407916363
0.062015625000000005                              0.7705744536395529                                0.8616880914878791                                11291.557772277454
0.0664453125                                      0.7692002327663525                                0.8579466635843171                                9792.020908601333
0.07087500000000001                               0.7677592994653275                                0.8543623492681068                                8522.790240824908
0.07530468750000001                               0.7662575767239299                                0.8509052031875634                                7441.054421259605
0.07973437500000001                               0.7647020713547519                                0.8475527429137897                                6513.822193018153
0.08416406250000001                               0.7631002072673976                                0.8442872687275995                                5715.125222558328
0.08859375000000001                               0.7614592230513502                                0.8410954781811982                                5024.318556324487
0.09302343750000001                               0.7597850666720516                                0.8379687055938607                                4424.882795992189
0.09745312500000002                               0.7580833351089822                                0.8349001949256422                                3903.2504442640966
0.10188281250000002                               0.7563593725581601                                0.831884219605657                                 3448.1650768686727
0.1063125                                         0.7546174803868984                                0.8289174508669486                                3050.297940234503
0.1107421875                                      0.7528616204503238                                0.8259974318502167                                2701.7986295248256
0.115171875                                       0.7510955179663377                                0.8231221159792643                                2396.0134207779784
0.11960156250000001                               0.7493225179468981                                0.8202898593381331                                2127.282222866683
0.12403125000000001                               0.7475459620545832                                0.8174990983591333                                1890.7556135780487
0.1284609375                                      0.7457683074154235                                0.8147486660953585                                1682.2937947258674
0.132890625                                       0.743992260346424                                 0.8120373205806821                                1498.319819567811
0.1373203125                                      0.7422185790319069                                0.8093646846059289                                1335.7925942449458
0.14175000000000001                               0.7404497098163663                                0.8067295828908417                                1192.031605942536
0.14617968750000002                               0.7386878077414583                                0.8041308454236858                                1064.715389519567
0.15060937500000002                               0.7369334819392639                                0.8015680931362718                                951.8608982059691
0.15503906250000002                               0.7351886339130442                                0.7990401694638336                                851.7097369852164
0.15946875000000002                               0.7334543639143001                                0.7965462282520124                                762.7421968666602
0.16389843750000002                               0.731731297508452                                 0.7940857771564249                                683.6410727074716
0.16832812500000002                               0.7300207066459663                                0.7916577064371215                                613.2372854706584
0.17275781250000002                               0.7283230784256154                                0.789261432753781                                 550.521160459852
0.17718750000000003                               0.7266389269910265                                0.786896390939342                                 494.6066668468306
0.18161718750000003                               0.7249690141520577                                0.7845615482626581                                444.70692932465147
0.18604687500000003                               0.7233135115004035                                0.7822565284084406                                400.1423948680432
0.19047656250000003                               0.721672771025232                                 0.7799807304916107                                360.31050978830905
0.19490625000000003                               0.7200471802646207                                0.7777332153380473                                324.67586276969377
0.19933593750000003                               0.7184367713145696                                0.7755137583256767                                292.7757970706697
0.20376562500000003                               0.7168417352682752                                0.7733217452302321                                264.19648856958565
0.20819531250000003                               0.7152622007761713                                0.7711563500495047                                238.57025117691134
0.212625                                          0.7136981562524227                                0.7690174360589577                                215.57866653347787
0.2170546875                                      0.7121496531756999                                0.7669043568124125                                194.9347424482224
0.221484375                                       0.7106166624739445                                0.7648165230596916                                176.38482879345779
0.2259140625                                      0.7090991619970497                                0.762753721421008                                 159.70667926528216
0.23034375                                        0.7075970877854085                                0.760715343827519                                 144.70009150881592
0.23477343750000002                               0.7061103552453312                                0.7587009782806756                                131.18852710387145
0.23920312500000002                               0.7046389104786019                                0.7567103597381148                                119.01574416979548
0.24363281250000002                               0.7031826157515266                                0.7547429191177026                                108.04103925565273
0.24806250000000002                               0.7017412657991693                                0.7527980473614733                                98.13908161327099
0.2524921875                                      0.7003147415830826                                0.7508753639592038                                89.19934909600984
0.256921875                                       0.6989030998509178                                0.748975050306586                                 81.12532045548642
0.2613515625                                      0.6975060407868101                                0.7470963255316923                                73.82704645684524
0.26578125                                        0.6961234637234919                                0.7452389274461165                                67.22618943465636
0.2702109375                                      0.6947555060276516                                0.74340321382209                                  61.254440743029704
0.274640625                                       0.6934018040158048                                0.741588311072056                                 55.84697836613627
0.27907031250000003                               0.6920620922480742                                0.7397935815949578                                50.94673832159549
0.28350000000000003                               0.6907366131589276                                0.7380196077316028                                46.505515910823874
0.28792968750000003                               0.6894250615723778                                0.736265727448999                                 42.477082737084956
0.29235937500000003                               0.688127041948758                                 0.7345310826838625                                38.81981185141182
0.29678906250000003                               0.6868428483129168                                0.7328163112784828                                35.499219843834034
0.30121875000000004                               0.6855722476722186                                0.7311209465151469                                32.482188712318234
0.30564843750000004                               0.6843147319724743                                0.7294439706883391                                29.738229646704564
0.31007812500000004                               0.6830706328726204                                0.7277860481585472                                27.242513377985475
0.31450781250000004                               0.6818397902277313                                0.7261468765905026                                24.971185622229118
0.31893750000000004                               0.680621601860856                                 0.7245253191431422                                22.901816916800424
0.32336718750000004                               0.6794164264165816                                0.7229220528963404                                21.01642644950548
0.32779687500000004                               0.6782241720921762                                0.7213369120436426                                19.297739817902883
0.33222656250000004                               0.6770441598035575                                0.7197686700799151                                17.729182042449917
0.33665625000000005                               0.6758767667059327                                0.7182180081914968                                16.297661294133185
0.34108593750000005                               0.6747219628255916                                0.7166848740574597                                14.990602761863995
0.34551562500000005                               0.6735790070258068                                0.7151679739788331                                13.795702413822225
0.34994531250000005                               0.6724482883955034                                0.7136679871338621                                12.703378482837559
0.35437500000000005                               0.6713298069346814                                0.7121849135225463                                11.704403777036772
0.35880468750000005                               0.6702228466105025                                0.7107175371642355                                10.789685474330147
0.36323437500000005                               0.6691277285752557                                0.7092664034458854                                9.952093536229896
0.36766406250000006                               0.6680444777579284                                0.707831554702376                                 9.184828997166179
0.37209375000000006                               0.6669724835612474                                0.7064119779016357                                8.481207967658296
0.37652343750000006                               0.6659119251148091                                0.7050079702346841                                7.835832602889975
0.38095312500000006                               0.6648628756360369                                0.7036196531753663                                7.2436916746115605
0.38538281250000006                               0.6638248204679591                                0.7022461903430937                                6.699848680791738
0.38981250000000006                               0.6627978115714948                                0.7008876661807198                                6.200200848155137
0.39424218750000006                               0.6617819644065128                                0.6995442683246696                                5.741037069033379
0.39867187500000006                               0.6607768514038863                                0.698215314988384                                 5.318694616948325
0.40310156250000007                               0.6597824108867809                                0.696900707824169                                 4.930042491900535
0.40753125000000007                               0.6587987951067173                                0.6956006896068996                                4.572319634673945
0.41196093750000007                               0.6578256555357092                                0.6943147143958182                                4.2427962536883035
0.41639062500000007                               0.6568628290935821                                0.6930425267390897                                3.93907327020252
0.42082031250000007                               0.6559104999003953                                0.691784415045821                                 3.659087090817402
0.42525                                           0.6549683912062361                                0.6905399530778943                                3.4007943477056597
0.4296796875                                      0.6540362496352436                                0.6893087505968903                                3.1623493479898968
0.434109375                                       0.6531142866879955                                0.6880911333467543                                2.9422028495385573
0.4385390625                                      0.652202290817073                                 0.6868867807250262                                2.7388187719667263
0.44296875                                        0.6512999285311483                                0.6856951873219244                                2.5507714497290563
0.4473984375                                      0.6504074345723012                                0.6845167088916587                                2.3768926280127114
0.451828125                                       0.6495246565942052                                0.6833511180791247                                2.2160227425606855
0.4562578125                                      0.648651190421488                                 0.682197811710371                                 2.067056181696168
0.4606875                                         0.6477872901794273                                0.6810571690310383                                1.9291081145872717
0.46511718750000003                               0.6469327845677655                                0.6799289402596249                                1.8012879465907532
0.46954687500000003                               0.646086864560222                                 0.6788119457143181                                1.6826854808360678
0.47397656250000003                               0.6452499986648856                                0.6777068685502698                                1.572667197533007
0.47840625000000003                               0.6444221868817572                                0.6766137087674785                                1.4705755990352762
0.48283593750000003                               0.6436034292108359                                0.6755324663659467                                1.375805671419917
0.48726562500000004                               0.6427937256521217                                0.6744631413456735                                1.2878005658640943
0.49169531250000004                               0.6419930591541165                                0.673405709431921                                 1.2060457977450743
0.49612500000000004                               0.6412001251190196                                0.6723583133822173                                1.1299369200044311
0.5005546875000001                                0.6404158742539399                                0.671322306635619                                 1.059154147811959
0.504984375                                       0.6396403065588769                                0.6702976891921294                                0.9933015942572373
0.5094140625000001                                0.6388734220338312                                0.6692844610517511                                0.9320141285153367
0.51384375                                        0.6381152206788028                                0.6682826222144805                                0.8749549073560927
0.5182734375000001                                0.6373657024937911                                0.6672921726803187                                0.8218131097053203
0.522703125                                       0.6366233730236619                                0.6663110131634413                                0.7721973748466551
0.5271328125000001                                0.6358889425057015                                0.6653401413458999                                0.7259075575862138
0.5315625                                         0.6351626797050933                                0.6643799347665923                                0.6827234286203646
0.5359921875000001                                0.6344445846218374                                0.6634303934255168                                0.6424228776627684
0.540421875                                       0.6337346572559341                                0.6624915173226746                                0.6048004453788012
0.5448515625000001                                0.6330328976073836                                0.6615633064580639                                0.5696660310578133
0.54928125                                        0.6323382018409343                                0.6606442393275946                                0.5367900916907472
0.5537109375000001                                0.6316506336605332                                0.6597344037394928                                0.5060214601636875
0.5581406250000001                                0.6309707266518374                                0.658834535177392                                 0.47723972395184594
0.5625703125000001                                0.6302984808148469                                0.6579446336412886                                0.45030779254747627
0.5670000000000001                                0.6296338961495622                                0.6570646991311901                                0.4250985103039112
0.5714296875                                      0.6289769726559831                                0.6561947316470893                                0.40149390999541784
0.5758593750000001                                0.628326986027459                                 0.6553337504049414                                0.3793596713723083
0.5802890625                                      0.6276834246681902                                0.654481062652579                                 0.35858142934930515
0.5847187500000001                                0.6270470397993111                                0.6536376856189722                                0.3390940220563845
0.5891484375                                      0.6264178314208222                                0.6528036193041197                                0.3208115699528867
0.5935781250000001                                0.625795799532723                                 0.6519788637080227                                0.3036542065126893
0.5980078125                                      0.625180944135014                                 0.6511634188306797                                0.28754764113461223
0.6024375000000001                                0.6245728763427203                                0.6503567662168603                                0.2724131626723509
0.6068671875                                      0.6239705994127214                                0.649557577024575                                 0.2581645131831048
0.6112968750000001                                0.6233750387930304                                0.6487670850463164                                0.24476716208254465
0.6157265625                                      0.6227861944836472                                0.6479852902820862                                0.2321665203271861
0.6201562500000001                                0.622204066484572                                 0.6472121927318822                                0.22031169019118388
0.6245859375                                      0.621628654795805                                 0.6464477923957065                                0.20915520577987215
0.6290156250000001                                0.6210598587999094                                0.6456919568887306                                0.19865097746795307
0.6334453125                                      0.6204962832090826                                0.6449428503965965                                0.18873398001552358
0.6378750000000001                                0.6199389886631748                                0.6442018684291486                                0.17938664239604057
0.6423046875                                      0.619387975162186                                 0.6434690109863874                                0.1705737691105888
0.6467343750000001                                0.6188432427061161                                0.642744278068315                                 0.1622624623473865
0.6511640625                                      0.6183047912949653                                0.642027669674927                                 0.15442196584039988
0.6555937500000001                                0.6177726209287333                                0.6413191858062277                                0.14702351967697636
0.6600234375                                      0.6172454452165512                                0.6406171522274307                                0.14002375134049921
0.6644531250000001                                0.6167239972403809                                0.6399225230430413                                0.13340867623902505
0.6688828125                                      0.6162084196372086                                0.6392354838947696                                0.12715720098126299
0.6733125000000001                                0.6156987124070348                                0.6385560347826165                                0.12124776885501062
0.6777421875                                      0.6151948755498595                                0.6378841757065842                                0.11566017756247755
0.6821718750000001                                0.6146969090656829                                0.6372199066666687                                0.1103754904809734
0.6866015625                                      0.6142038844384483                                0.6365620297135114                                0.10536695041428239
0.6910312500000001                                0.6137159991704699                                0.6359107996599039                                0.10062089318479153
0.6954609375                                      0.6132335975768826                                0.6352666607330576                                0.09612556711282652
0.6998906250000001                                0.6127566796576867                                0.6346296129329723                                0.09186665855404189
0.7043203125                                      0.612285245412882                                 0.6339996562596465                                0.087830721662051
0.7087500000000001                                0.6118192948424686                                0.6333767907130827                                0.08400512345954327
0.7131796875                                      0.6113582080710627                                0.6327602219791988                                0.08037337186191089
0.7176093750000001                                0.6109017332777416                                0.6321496273723274                                0.07692306966986429
0.7220390625                                      0.6104503786564908                                0.631545658096965                                 0.07364794007332313
0.7264687500000001                                0.6100041442073105                                0.6309483141531101                                0.07053835645559309
0.7308984375                                      0.6095630299302008                                0.6303575955407642                                0.06758525524804732
0.7353281250000001                                0.6091270358251615                                0.6297735022599238                                0.06478010150892527
0.7397578125000001                                0.608695805404083                                 0.6291955798395246                                0.06211278427452356
0.7441875000000001                                0.6082687158589501                                0.6286230342889217                                0.059572489723357255
0.7486171875000001                                0.6078464053013009                                0.6280566791085471                                0.057156129731576404
0.7530468750000001                                0.6074288737311346                                0.6274965142984045                                0.05485714953794061
0.7574765625000001                                0.6070161211484524                                0.626942539858491                                 0.05266936416579162
0.7619062500000001                                0.6066081475532537                                0.626394755788808                                 0.0505869365948682
0.7663359375000001                                0.6062048186735969                                0.6258529915369976                                0.04860374012708606